define                  = -DPOSRES -DPOSRES_FC_BB=1000.0 -DPOSRES_FC_SC=500.0 -DPOSRES_FC_LIPID=0.0 -DDIHRES -DDIHRES_FC=0.0
integrator              = steep
dt                      = 0.002
nsteps                  = 1000
nstxtcout               = 200
nstvout                 = 200
nstxout                 = 200
;nstcalcenergy           = 100
nstenergy               = 200
nstlog                  = 200
;
cutoff-scheme           = Verlet
nstlist                 = 20
rlist                   = 1.2
vdwtype                 = Cut-off
vdw-modifier            = Force-switch
rvdw_switch             = 1.0
rvdw                    = 1.2
coulombtype             = PME
rcoulomb                = 1.2
;
;
constraints             = h-bonds
constraint_algorithm    = LINCS
;continuation            = yes
;
nstcomm                 = 100
comm_mode               = linear
comm_grps               = System

;gen-vel                 = yes
;gen-temp                = 310
;gen-seed                = -1
